32
Lattice="5.72 0.0 0.0 7e-16 11.44 0.0 7e-16 7e-16 11.44" Properties=species:S:1:pos:R:3 energy=-75.90353842924378 pbc="T T T"
Cd       1.11788028      10.15556362       3.74337433
Cd       1.85194772       4.83376516       8.84642623
Cd       1.17799952       9.88609374       9.67294528
Cd       1.80653255       0.70743596       6.96947493
Cd       1.34594111       7.05961209       1.09068562
Cd       2.89732699      11.14162120       5.69429686
Cd       1.44053157       6.86494172       6.86491191
Cd       3.92544689       0.79087190       9.88934443
Cd       4.23270368       4.41397470       1.43075119
Cd       5.56297739       8.32083135       5.85617709
Cd       1.45627265       1.83204827       0.57712673
Cd       3.81083729       9.48892563       1.75938532
Cd       4.75380660       3.54951610       6.05158750
Cd       3.93765293       6.96898154       3.67199496
Cd       1.36768684       4.28849714       4.22963770
Cd       4.53605457       7.37734822       9.82835248
Se       4.34356968       1.13153274       1.70633744
Se       1.48569654       9.79964182       0.95380566
Se       1.50897762       1.06368121       9.53400779
Se       1.51935799       0.94018531       4.37122880
Se       4.31007980       9.93623860       9.74291378
Se       1.44124805       9.66852871       6.93576571
Se       4.17782059       9.54235634       4.26554647
Se       4.00155336       4.07781539       9.55078918
Se       4.21494598       7.07983400       1.02964759
Se       4.22682323       4.75519542       4.08788435
Se       1.29129431       7.03415416       9.66546952
Se       1.31016818       7.23792692       4.02721619
Se       1.26954209       4.43634860       6.52407483
Se       4.26077298       1.29972272       6.63549917
Se       4.23879380       7.10105541       7.27751834
Se       1.37876669       4.24241388       1.37872402
32
Lattice="5.72 0.0 0.0 7e-16 11.44 0.0 7e-16 7e-16 11.44" Properties=species:S:1:pos:R:3 energy=-72.50043687263678 pbc="T T T"
Cd       5.16846357       6.04510314       5.92935728
Cd       1.87815897       6.06382996       3.39443135
Cd       4.57159064       8.29281500       2.65557731
Cd       4.60077101       2.83125859       8.59993893
Cd       1.54696307       1.50887993       2.86923898
Cd       1.62162984       9.19887673       5.93432064
Cd       4.64593831       1.22780467       5.40798427
Cd       5.12161450       4.73329804       1.28293047
Cd       3.18243784      10.19946951       7.16318597
Cd       4.38926919       1.09648738       0.33151925
Cd       1.67382506       8.11008032      10.75405198
Cd       2.01057045       0.64059393       8.38776236
Cd       4.54591830       9.56904665       9.42056654
Cd       2.21353150       4.50025867      10.25154732
Cd       1.79056614       3.49777655       6.43166692
Cd       4.57576867      10.25480056       2.91907868
Se       4.53656706       3.55461659      10.81549855
Se       1.71853938       8.95619184       3.06012236
Se       1.75305036       0.99366223       0.34577262
Se       4.56613947       7.08269755       9.23300399
Se       1.91405323       3.75787530       3.45131763
Se       4.63102054       9.82351837       0.60124841
Se       4.78493672       1.33402970       2.94133126
Se       4.64867184       3.89041918       6.55252486
Se       4.76601503       6.14320667       3.61953350
Se       4.54443591       9.73723133       5.18199109
Se       1.79471410       6.08626802       0.69617884
Se       1.79736368       0.58128183       5.89470223
Se       1.63282684       6.87958856       6.21475375
Se       1.66843749       9.67138416       8.81825604
Se       1.74700727       2.96681856       8.63362802
Se       4.47042080       0.45739079       8.56137284
32
Lattice="5.72 0.0 0.0 7e-16 11.44 0.0 7e-16 7e-16 11.44" Properties=species:S:1:pos:R:3 energy=-90.57179114041719 pbc="T T T"
Cd       1.32303571       6.94290875       7.18922278
Cd       4.50656399       1.11673761       4.67555849
Cd       1.56155035       1.25284168       1.55360394
Cd       1.07257802       7.16418404       1.85810858
Cd       4.19878831       9.83898065       1.76579528
Cd       1.32287632       1.26932636       7.25683916
Cd       4.26238344       7.11581247       4.56068347
Cd       4.22534296       4.00538563       7.39871682
Cd       4.44279608       9.78306427       7.33924485
Cd       4.17575994       4.10250008       1.84065067
Cd       1.47595131       9.72408243      10.15039161
Cd       1.61621720       4.10811634       4.38053632
Cd       1.20541841       9.81971599       4.37701244
Cd       1.41779414       4.28100334      10.13368458
Cd       4.26724425       1.22687167      10.01599269
Cd       4.34577237       6.89113420      10.34968327
Se       4.49799431       1.33972853       1.54098314
Se       4.26540057       1.19822285       7.47287357
Se       1.53703546       3.95079828       1.64340330
Se       1.08075285       1.42004990       4.49997304
Se       3.92675146       4.16394301       4.63255307
Se       1.32644787       1.32693615      10.49534714
Se       1.61595908       4.14561583       7.80615192
Se       4.25699131       4.42589786      10.15453950
Se       4.45899458       6.93014089       1.71348540
Se       1.17207264       7.09043786       4.60137968
Se       1.69541144       9.90607538       1.84273211
Se       4.13694928       9.78139848       4.68943221
Se       4.59622131       6.87839415       7.36299949
Se       1.27825663       6.82821076      10.30203211
Se       1.28414808       9.65642594       7.37700254
Se       4.23915773       9.97822887      10.34032059
32
Lattice="5.72 0.0 0.0 7e-16 11.44 0.0 7e-16 7e-16 11.44" Properties=species:S:1:pos:R:3 energy=-84.23013878851998 pbc="T T T"
Cd       1.24290595       7.68030080       3.36357797
Cd       1.23487286       4.45412246       6.19127943
Cd       1.33506691      10.25675310       0.52590437
Cd       3.90863145      10.08766816       9.25344610
Cd       3.86930429       7.41647423       6.55686281
Cd       1.12082534       7.30520074       9.25953407
Cd       3.82621215       1.70581952       6.47199960
Cd       1.10423893       4.38462026       1.00685902
Cd       4.25683818       7.37183845       0.59854377
Cd       3.83808134       4.48641641       9.26090782
Cd       3.96608972       9.79470786       3.56405058
Cd       1.20724271      10.14948377       6.68142078
Cd       0.85059517       1.63097048       3.60482763
Cd       4.04522167       1.36955864       0.83685283
Cd       4.05733622       4.43758693       3.54220546
Cd       1.26918926       1.46049945       9.11535825
Se       1.15416001       4.24512604       9.16864889
Se       4.17030981       4.60364480       0.71392073
Se       3.88045633      10.35543592       0.65211215
Se       3.95043602       1.63116063       3.54784615
Se       1.26864136       4.71287191       3.56133385
Se       4.05400424       4.78398883       6.30694168
Se       1.20639236       7.45806407       6.70066713
Se       4.04429091       7.31108386       9.47951745
Se       0.82492203       7.27498612       0.57435583
Se       1.39289524       9.79110379       3.48032524
Se       1.10164866       1.76065278       0.88943290
Se       4.03852862      10.07780639       6.54460176
Se       3.85824232       7.92202809       3.48562054
Se       1.24380474      10.44941246       9.30329068
Se       4.04346512       1.86155478       9.24243445
Se       1.55009704       1.70084939       6.77965375
32
Lattice="5.72 0.0 0.0 7e-16 11.44 0.0 7e-16 7e-16 11.44" Properties=species:S:1:pos:R:3 energy=-90.25556995704028 pbc="T T T"
Cd       1.03505174       2.21758788       4.72100996
Cd       0.70746003       2.07265522      10.20045723
Cd       3.98351511       2.43243637       7.07868707
Cd       3.84536573       7.77870788       1.48332879
Cd       3.78627310      10.59957723       4.68099270
Cd       0.96336100      10.63129983       7.46810940
Cd       0.90394141       7.94913055       4.56703888
Cd       3.82246333       4.97488391      10.15865288
Cd       3.50998308       2.12907888       1.81531408
Cd       3.92891797       7.69177500       7.51899695
Cd       3.82300937      10.59271377      10.31367177
Cd       3.71506216       5.09724738       4.63075060
Cd       1.04662568       4.74188898       7.22991676
Cd       0.90890839       7.67801668      10.16584681
Cd       0.89086404       4.94656752       1.61940555
Cd       1.03080742      10.69247983       1.90862700
Se       1.33219846       1.92957802       1.65510922
Se       3.53350115       2.10866632       4.51671669
Se       3.93956258       5.14065885       1.76840142
Se       0.93187387       4.65745593       4.52066222
Se       1.00668931       2.47277071       7.29433041
Se       3.74594483       1.98222619      10.22699412
Se       3.90563771       4.88954204       7.40805671
Se       0.96681101       4.96890692      10.47420516
Se       0.74781908       7.68239736       1.56218018
Se       3.65653215       7.58682631       4.60693851
Se       3.65368068      10.90857207       1.88863439
Se       0.79070087      10.48377154       4.43397739
Se       0.75241211       7.79215162       7.52920793
Se       3.52233241       8.16689761      10.21368161
Se       3.87816019      10.88461708       7.31612355
Se       0.79643156      10.59905930      10.04208186
32
Lattice="5.72 0.0 0.0 7e-16 11.44 0.0 7e-16 7e-16 11.44" Properties=species:S:1:pos:R:3 energy=-80.54039727326744 pbc="T T T"
Cd       2.77271830       6.49811563       7.28450086
Cd       3.70159834       9.01567073       1.36325313
Cd       0.83309956       6.85900675      10.44772020
Cd       0.69951503       4.05968107       7.33588589
Cd       3.76782986       5.30205016       0.12907645
Cd       5.33117822       0.91771393       1.36000904
Cd       5.09778571       7.89782247       5.66618990
Cd       1.89223444       2.19766668      10.88589057
Cd       4.36769400       1.58065116       8.44271814
Cd       5.03983707       4.06654302       3.04733212
Cd       0.46009802       9.56511735       9.57332784
Cd       3.29355146       1.37292627       5.53225522
Cd       2.61191614       9.74393226       8.32330960
Cd       1.59227299      10.74929146       3.45127855
Cd       0.80574771       7.50763942       2.88686429
Cd       2.24126955       4.24056696       3.95515137
Se       3.52612174      11.21224623      10.78990694
Se       0.92155769       9.53233480       0.87172546
Se       2.62729330       4.43562027       9.35666432
Se       5.34678977       2.92076290      10.90447659
Se       2.05685899       8.34167304       5.17102315
Se       1.45709031       1.17689305       8.04329989
Se       0.49679907       1.72465534       4.50794645
Se       3.82794042       3.48493891       6.42002104
Se       3.64725400       7.90038223      10.28448011
Se       3.10143956       2.12035262       2.11759446
Se       0.66669866       7.20137298       7.86321463
Se       0.75837465       4.91018180       1.25919472
Se       0.69862089       5.51919598       5.10514096
Se       4.97746590      10.55949068       3.39547736
Se       3.79193107       6.28046592       2.94414773
Se       4.79481009      10.71733888       6.84879052
32
Lattice="5.72 0.0 0.0 7e-16 11.44 0.0 7e-16 7e-16 11.44" Properties=species:S:1:pos:R:3 energy=-89.96070698789117 pbc="T T T"
Cd       1.91625225      11.11486216       7.74050249
Cd       1.60837752       8.10525268       4.93388297
Cd       1.96854471       7.94688634      10.68467989
Cd       1.65485485       5.21060540       7.79105757
Cd       4.41953828       5.37120713       4.80413034
Cd       4.58339296       2.63503297       2.01668777
Cd       1.84897241       5.34138085       1.78495724
Cd       4.56382590       5.39602340      10.36156419
Cd       4.88990912       8.38792127       7.65870335
Cd       4.64029635       2.30566738       7.76552746
Cd       5.05617203       8.42728081       2.05496950
Cd       4.53020043      10.96589449       4.80708482
Cd       1.58140406       2.46759598       4.99079936
Cd       4.94572163      10.71302000      10.74766812
Cd       1.88722579      10.97370073       2.01040910
Cd       1.85754550       2.34200657      10.49462921
Se       1.39083052       7.97513271       2.11382360
Se       1.91469469       2.54114209       1.93429648
Se       4.46323714      11.04796496       2.25467190
Se       4.79331673       2.29970445      10.69895055
Se       1.96782142      10.84371333       4.65420298
Se       1.89678011      11.03319154      10.76126127
Se       4.93621052       2.46480442       4.83158728
Se       1.82106931       2.53286370       7.62806211
Se       4.48478539       5.44789047       1.71044259
Se       1.84909668       8.30435235       7.32970502
Se       4.80960635       8.06741454       4.73809256
Se       4.77270765      11.04776959       7.56449085
Se       2.09320340       5.15278038       4.76619650
Se       5.07178406       5.20935592       7.73336559
Se       4.57247251       8.31628774      10.53079011
Se       1.72083907       5.36213963      10.40688325
32
Lattice="5.72 0.0 0.0 7e-16 11.44 0.0 7e-16 7e-16 11.44" Properties=species:S:1:pos:R:3 energy=-75.52606154316891 pbc="T T T"
Cd       4.66535001       4.71614733       1.29223361
Cd       2.70571262       8.53564877       3.35250982
Cd       5.36169910       0.17999945       5.80150559
Cd       1.44374761       3.82923936      10.44730360
Cd       1.33386190       1.00760736       7.85274124
Cd       3.86383201       1.71656643      10.01434881
Cd       3.73664759       6.28051445       9.64978187
Cd       1.04907585       9.86697819      10.59843865
Cd       1.26755734       7.60730439       2.28953651
Cd       0.76724314       6.93488819       7.99712318
Cd       3.90054724       9.56139765       7.21134914
Cd       5.12172528       5.95974735       5.77883323
Cd       3.94232191       1.65703754       4.30711071
Cd       1.17559737       4.25989369       4.61608457
Cd       1.22870770       1.07027848       1.52771670
Cd       4.42558880       9.89959716       2.19441551
Se       1.57175075       9.90974928       1.88064083
Se       1.54566646       1.07307370       4.71426508
Se       4.35851316       1.01695500       1.88592228
Se       1.34473019       3.72148147       1.83303710
Se       4.32550123       9.72055696       4.72716817
Se       4.26977834       1.06093749       7.69773236
Se       1.33263860       3.97749975       7.57156935
Se       1.51634316       1.13255419      10.36880402
Se       1.51286060       6.76417263      10.28368278
Se       4.26944508       4.17501906      10.50692835
Se       4.34944864       9.68867581      10.41019615
Se       4.29512503       7.27316564       1.95758842
Se       4.43892996       3.98637643       4.71503861
Se       4.28328898       7.10436287       7.56251996
Se       1.47113367       6.75913588       4.51466661
Se       1.42389800       9.88177918       7.47468745
32
Lattice="5.72 0.0 0.0 7e-16 11.44 0.0 7e-16 7e-16 11.44" Properties=species:S:1:pos:R:3 energy=-88.47565114766621 pbc="T T T"
Cd       4.54469094       1.24859619       1.59471570
Cd       4.50316856       7.05933502       1.54521683
Cd       1.85779770       1.15278406       9.97464428
Cd       1.69680500       1.02343626       4.37263762
Cd       1.73245449       3.97670971       7.38380708
Cd       4.62404151       4.15675661      10.19112969
Cd       1.73195562       4.07939088       1.56989624
Cd       1.93938308       9.59521525       1.87023565
Cd       4.60511573       9.88653300      10.36398695
Cd       1.76805096       6.69545546       4.63391182
Cd       4.35311631       3.99799681       4.53165635
Cd       4.58311829       9.90275617       4.59038297
Cd       1.69387157       7.02863091       9.97963093
Cd       1.76183898       9.76191910       7.88766118
Cd       4.66650679       7.06684768       7.46292224
Cd       4.77455092       1.07300180       7.50928272
Se       4.51285939       9.54555441       1.69672219
Se       1.94906404       9.70167982       4.51331876
Se       1.56585393       1.02405718       1.68168015
Se       4.49816890       0.95592588       4.43273750
Se       4.71440682      10.00097956       7.39227577
Se       1.80219739      10.02788682       9.94500582
Se       1.64238832       1.10234209       7.69968312
Se       4.49287053       1.33173222      10.09235585
Se       4.60638005       3.97042478       1.64606064
Se       2.08075517       4.09940097       4.60651278
Se       1.66416294       6.78560090       1.87505543
Se       4.46107099       6.64868322       4.39491554
Se       4.70693812       4.05277907       7.33154134
Se       1.76040050       4.12487133      10.27422841
Se       1.58777615       7.21472502       7.71017853
Se       4.60009376       6.67410398      10.30608005
32
Lattice="5.72 0.0 0.0 7e-16 11.44 0.0 7e-16 7e-16 11.44" Properties=species:S:1:pos:R:3 energy=-88.53175723282402 pbc="T T T"
Cd       1.76216958       4.40691563       1.02054885
Cd       1.59612277       1.73369281       3.88462840
Cd       4.49372480       4.57986151       9.54772938
Cd       4.38064896       4.53671098       3.90410726
Cd       4.55618426      10.42610152       3.79791422
Cd       1.44429009      10.16097448       6.83911334
Cd       4.40521219       7.66090485       6.70609803
Cd       4.68174035      10.11846868       9.54462793
Cd       4.76129386       1.81450427       0.77325968
Cd       1.60256059       7.19832320       9.68679495
Cd       1.60436469      10.37600842       0.97578792
Cd       4.74275715       7.47495036       1.11856622
Cd       1.58073690       1.61467994       9.59795231
Cd       1.60404210       4.41303975       6.91255272
Cd       4.34862183       1.50830814       6.80354708
Cd       1.69503326       7.56167162       3.49660892
Se       1.66685998       4.85649717       9.80370142
Se       4.64789225       7.69230635       3.66992019
Se       4.75933060      10.35750272       0.84041107
Se       4.80620360       1.99986134       9.54699803
Se       1.66765660      10.35285085       3.93626943
Se       4.96170007       7.86507281       9.65356961
Se       1.70311883       1.80544788       6.72292648
Se       4.77759046       5.09200759       6.79475269
Se       1.71830078       2.08495390       0.70636226
Se       4.81189727       1.73381453       3.84476045
Se       4.55630706       4.59999280       1.20581280
Se       1.86520451       7.44153378       1.42496731
Se       1.86043182       4.73322285       3.94285119
Se       1.80984433      10.53818990       9.51267866
Se       1.87855206       7.76169766       6.56818778
Se       4.72762071      10.00909078       6.89767727
32
Lattice="5.72 0.0 0.0 7e-16 11.44 0.0 7e-16 7e-16 11.44" Properties=species:S:1:pos:R:3 energy=-90.46538827549375 pbc="T T T"
Cd       1.47916766       1.98173593       1.65724730
Cd       1.49091538      10.49009291       4.98343689
Cd       4.54248284       1.94400497      10.45798412
Cd       4.31873010       4.81639775       2.00807419
Cd       1.30754519      10.78794106      10.62170219
Cd       4.46420232       2.35726255       4.90437519
Cd       1.39425181       5.09049128       4.89978380
Cd       1.44274921       2.18398706       7.72921681
Cd       1.34376530       7.42984338       1.97073400
Cd       1.22351947       5.07142572      10.62674204
Cd       4.51972390       7.57470717      10.61139390
Cd       4.46706373       7.92740381       4.93474004
Cd       4.21753945       5.07225468       7.86323358
Cd       1.50189745       7.46942656       7.57198927
Cd       4.22737803      10.51625303       7.75723005
Cd       4.47442336      10.36586290       1.93032238
Se       4.27214419      10.64840034      10.46194977
Se       1.62731465      10.67038291       2.11153729
Se       1.23443065       1.74892431      10.70278249
Se       4.12795822       1.80223401       1.87713484
Se       4.35325323      10.51463764       4.85155017
Se       1.26952559      10.38878956       7.73468697
Se       1.51177598       2.22513138       5.22524682
Se       4.52934202       2.09706795       7.80399166
Se       4.63594910       4.86626384      10.60350199
Se       1.64868148       4.99480310       1.78086450
Se       1.30263932       7.43482207      10.90187520
Se       4.43652270       7.83051692       2.01636103
Se       4.40757012       5.17838430       4.73912489
Se       1.35942602       5.02220344       7.95184591
Se       1.37043098       7.87241858       4.95016218
Se       4.28714296       7.49780143       7.86434242
32
Lattice="5.72 0.0 0.0 7e-16 11.44 0.0 7e-16 7e-16 11.44" Properties=species:S:1:pos:R:3 energy=-91.09976945064409 pbc="T T T"
Cd       1.30527173       0.11109130       1.83084991
Cd       1.15518970       3.16104745      10.14596273
Cd       3.91674452       8.89648869       7.41591363
Cd       4.05795283       0.18277051      10.25688765
Cd       1.30829376       0.35454066       7.41642760
Cd       0.90439503       5.55432903       7.35668261
Cd       1.07799730       5.77482537       1.64864737
Cd       1.16465382       8.64282984      10.13738761
Cd       4.11604314       5.88796432      10.18488394
Cd       3.82276894       3.11980193       7.16292847
Cd       3.93778643       6.11448917       4.44289574
Cd       3.91407221       3.03371617       1.27396872
Cd       1.24739935       8.44819724       4.54651443
Cd       3.91337595       0.13672726       4.52000992
Cd       4.09560901       8.79264727       1.56390702
Cd       1.03911070       3.32456379       4.25960147
Se       4.14365186       8.85123207       9.99530487
Se       3.86576974       0.01347428       1.75616124
Se       3.76424045       2.94076130      10.17419402
Se       0.93699798       0.06036420      10.38179667
Se       4.13264502       0.19762556       7.13669401
Se       1.40678564       8.48664583       7.16874293
Se       1.06274985       0.21005809       4.34129776
Se       1.48952155       3.23433869       7.32268519
Se       4.00353609       5.75779421       1.44851414
Se       1.34219210       3.01739602       1.93158399
Se       1.00988783       5.77031062      10.32588846
Se       1.27994103       8.95728120       1.68368425
Se       3.85763263       3.05594115       4.56891436
Se       4.04270498       6.00921634       7.37796431
Se       3.92100091       8.47764438       4.41744739
Se       1.07342454       6.07279857       4.32152585
32
Lattice="5.72 0.0 0.0 7e-16 11.44 0.0 7e-16 7e-16 11.44" Properties=species:S:1:pos:R:3 energy=-78.71661025823778 pbc="T T T"
Cd       4.86229030       2.68609154       4.55341765
Cd       3.41662481       7.59489427       7.64114184
Cd       3.20840146       2.17180213       6.67868342
Cd       0.17466181       9.48015091       9.71105261
Cd       5.52724694       5.93396918       3.26838431
Cd       1.24510135       1.15156178       2.29833614
Cd       5.17167686       2.22686185       9.88755335
Cd       0.33061347      10.71803710       5.71197860
Cd       2.85635978       8.02162281       1.07233822
Cd       3.34832999       9.21937149       4.65000655
Cd       2.84950398       4.17373937       1.71675826
Cd       0.86015583       5.83912376      10.99109359
Cd       4.41883647       5.07944119       8.55525487
Cd       2.19447069       0.62579611       8.83197051
Cd       1.96693059       5.58436358       6.15532775
Cd       3.85666544      10.82146092       1.48636026
Se       2.86150401       6.47288595       3.42716896
Se       3.45970163       5.83983366      10.72239233
Se       5.56227156       7.69663302       0.91585101
Se       3.05157174       9.69356575       9.91843805
Se       4.34798118       0.38918342       3.19873430
Se       0.06989440       7.95442870       5.39999688
Se       0.06707712       3.88525321       1.40458983
Se       3.44138953      10.57571211       6.99924496
Se       2.01972246       4.00692127       8.81873050
Se       2.08438806       3.03535971       4.00021336
Se       0.31221528      11.21005504      11.01189765
Se       4.76874469       4.77397426       5.76848743
Se       2.91668986       1.99981468       0.32623716
Se       1.22603454       7.24579447       8.27287605
Se       1.56556963      10.29123067       3.09063901
Se       5.50315683       1.56691667       7.58997359
32
Lattice="5.72 0.0 0.0 7e-16 11.44 0.0 7e-16 7e-16 11.44" Properties=species:S:1:pos:R:3 energy=-77.97801773329775 pbc="T T T"
Cd       4.81296189       6.02512581       9.19737183
Cd       2.12131837       0.60590128       2.31177411
Cd       4.56123703      10.04420957       1.39821009
Cd       4.69819614       3.53783351       2.12158717
Cd       4.45643678       1.09000722       4.62049093
Cd       4.55701363       9.43827107       7.13388643
Cd       3.24780741       2.65355724       7.49817174
Cd       1.82337770       3.70244668      10.11597987
Cd       4.08921886       0.65268582      10.92425743
Cd       1.77554177       8.85793831       3.81504128
Cd       1.97263372       6.83478849       7.23328518
Cd       1.11734747       6.97020775       0.82582464
Cd       1.30993903       3.87474846       4.80240575
Cd       1.73227389       9.68767753      10.02213877
Cd       4.12681859       6.21511832       4.81140803
Cd       0.06886453      10.63630243       6.12219711
Se       4.37063262       1.07807851       1.93341352
Se       1.56755222       1.07867040       4.52601389
Se       1.50588754       3.95974852       1.88514993
Se       4.46044694       3.65662797       4.58309200
Se       4.39089071       0.74665358       7.09208877
Se       1.65001872       9.37092991       7.13467669
Se       1.56880455       4.07779038       7.39893083
Se       4.34976658       3.95386392      10.34021989
Se       4.58255324       7.17026888       1.47868924
Se       1.64618400       6.49916221       4.73529034
Se       1.90765816       0.98794167      10.28070421
Se       1.70095109       9.85794169       1.49631943
Se       4.31755118       7.03406178       7.17322337
Se       1.47170847       6.94423986       9.94737437
Se       4.64373400       9.69060664       4.32236170
Se       4.58290822       9.80480933       9.99579521
32
Lattice="5.72 0.0 0.0 7e-16 11.44 0.0 7e-16 7e-16 11.44" Properties=species:S:1:pos:R:3 energy=-78.4747200370075 pbc="T T T"
Cd       4.52355267       1.95012753       6.75373020
Cd       3.46052665      10.61684248      10.60668836
Cd       3.85399478      10.02191152       3.97381725
Cd       0.63496918       1.40342351       9.69954178
Cd       1.26806193       4.24140372       2.05568941
Cd       5.47725386       8.62016522       7.22051121
Cd       4.47089524       4.50574024       4.45028452
Cd       1.27053524       4.59831909       6.97708484
Cd       2.76812079       5.67675544       8.70013506
Cd       4.33133214       1.49714942       1.77366129
Cd       0.94003309       7.01093006       3.86183310
Cd       1.01930256       9.91182066       1.33846118
Cd       3.46219369       7.25121725       1.05093966
Cd       0.98516441       7.19836213      10.49301036
Cd       1.60736833       0.90449027       4.82897338
Cd       3.90432084       4.40662721       9.89281492
Se       4.09311490       1.50026781      10.28748138
Se       1.25762329       2.02591496       7.23142939
Se       1.32687069       4.50650407      10.15161361
Se       3.88701309      10.07179375       1.38212428
Se       4.13067481       4.41312934       1.60341999
Se       1.25259663       6.92634390       7.48111341
Se       1.23156332       7.07906608       1.46166344
Se       1.11112736       4.60781424       4.45192616
Se       4.28397535       6.95629187       4.38648544
Se       4.12125052       4.39384183       7.23582355
Se       1.24870079       9.64324988      10.39520632
Se       1.08604319       1.37643874       1.55082544
Se       4.05853932       6.92600826      10.24687169
Se       4.00195835      10.25699029       7.14122032
Se       1.26326883       9.73422897       4.09872747
Se       4.01918450       1.77807743       4.18802411
32
Lattice="5.72 0.0 0.0 7e-16 11.44 0.0 7e-16 7e-16 11.44" Properties=species:S:1:pos:R:3 energy=-68.34714642405743 pbc="T T T"
Cd       3.95276031       4.41709065      11.05002382
Cd       3.59118188       1.31880659       7.34642739
Cd       2.91000756       3.25868229       0.52874337
Cd       5.65584935       2.98205413       3.46855888
Cd       5.29437508       0.56646053       3.29674573
Cd       0.81449661      10.86252946       7.49770912
Cd       4.54416174       7.53456818       2.27788435
Cd       4.06600681      10.30454946      10.44676923
Cd       2.68873368       6.23042940       3.27543152
Cd       0.54975634       1.26537819      10.07200078
Cd       1.51893166      10.71739346       1.78772376
Cd       3.02928920       8.78000779       6.06811191
Cd       2.11635156       8.37615529       9.91510131
Cd       1.31449439       4.12693598       7.13799387
Cd       0.22813348       6.48627285       9.24648556
Cd       4.23874705       4.78637584       4.84863406
Se       1.19940412      10.49715842      10.39241996
Se       1.38559021       4.55696305       4.67818812
Se       4.07993938      10.40862317       7.91386091
Se       4.19335638       1.76172520      10.75074767
Se       4.26843084       1.88141081       5.08241003
Se       1.26489675       1.67571855       7.83436317
Se       4.17563206       4.35160999       2.12422232
Se       4.42272411       4.67206214       7.76982593
Se       4.22588361       7.43741163      10.47158036
Se       1.28640190       7.31299210       1.59485072
Se       1.59833249       7.55850018       7.66927369
Se       1.35254144       1.61593954       2.04661699
Se       1.54696040      10.18797170       4.74036906
Se       1.46254274       4.38083721      10.57913320
Se       4.17176224      10.13332873       1.71039101
Se       4.25700138       7.22965088       4.59661283
32
Lattice="5.72 0.0 0.0 7e-16 11.44 0.0 7e-16 7e-16 11.44" Properties=species:S:1:pos:R:3 energy=-91.4365147264798 pbc="T T T"
Cd       4.14138052      10.79887021       7.30872392
Cd       1.35031220       5.03799719       4.35860985